version 3
run General-0-20221201-23:19:33-465314
attr configname General
attr datetime 20221201-23:19:33
attr datetimef 20221201-231933
attr experiment General
attr inifile omnetpp.ini
attr iterationvars ""
attr iterationvarsd ""
attr iterationvarsf ""
attr measurement ""
attr network lb_network
attr processid 465314
attr repetition 0
attr replication #0
attr resultdir results
attr runnumber 0
attr seedset 0
config network lb_network
config **.limit 200
config **.ComputeNodeSize 12
config **.RackLBNodeSize 3
config **.NetworkLBNodeSize 1
config **.OutsideNodeSize 1
config **.OutsideNodeDelay "truncnormal(0.01, 0.009)"
config **.ComputeNodeDelay "truncnormal(0.1, 0.05)"

vector 0 lb_network.worker_2[1] queueLengthVector ETV
vector 1 lb_network.worker_0[2] queueLengthVector ETV
vector 2 lb_network.worker_2[0] queueLengthVector ETV
vector 3 lb_network.worker_1[1] queueLengthVector ETV
vector 4 lb_network.worker_1[2] queueLengthVector ETV
vector 5 lb_network.worker_2[3] queueLengthVector ETV
vector 6 lb_network.worker_2[2] queueLengthVector ETV
vector 7 lb_network.worker_1[0] queueLengthVector ETV
vector 8 lb_network.worker_0[3] queueLengthVector ETV
vector 9 lb_network.worker_0[0] queueLengthVector ETV
vector 10 lb_network.worker_0[1] queueLengthVector ETV
vector 11 lb_network.worker_1[3] queueLengthVector ETV
0	66	0.21	0
0	218	0.379181547181	1
0	342	0.492193304085	0
0	430	0.564024326943	1
0	554	0.661374851266	2
0	572	0.676901648577	1
0	684	0.764125033476	2
0	765	0.830556398447	3
0	848	0.897525504498	2
0	902	0.938571803274	3
0	971	0.999737945628	4
0	1037	1.051449124908	3
0	1053	1.071972274296	4
0	1143	1.168919492809	5
0	1182	1.205372745318	4
0	1186	1.210503532665	5
0	1247	1.33810103999	6
0	1301	1.507282587171	5
0	1339	1.676464134352	4
0	1381	1.845645681533	3
0	1419	2.014827228714	2
0	1450	2.184008775895	1
1	70	0.215130787347	0
1	78	0.225392362041	1
1	86	0.235653936735	2
1	90	0.240784724082	3
1	106	0.261272901417	4
1	126	0.281831022858	3
1	147	0.307415015487	4
1	148	0.307484959593	3
1	192	0.353557129557	4
1	208	0.369054407757	3
1	238	0.399699243627	4
1	262	0.420362281227	3
1	289	0.445841357697	4
1	341	0.491983471767	3
1	382	0.528108815514	2
1	398	0.538125585837	3
1	454	0.584267699907	2
1	462	0.589678263678	1
1	511	0.630409813977	2
1	571	0.676551928047	1
1	585	0.687163223271	0
1	596	0.697424797965	1
1	609	0.707686372659	2
1	641	0.733305337341	3
1	702	0.779447451411	2
1	759	0.825589565481	1
1	796	0.851348418375	0
1	847	0.897490532445	1
1	877	0.918048653886	0
1	930	0.964190767956	1
1	931	0.964225740009	0
1	988	1.010367854079	1
1	989	1.010402826132	0
1	997	1.015533613479	1
1	1042	1.056544940202	2
1	1050	1.066841486949	1
1	1085	1.102687054272	2
1	1129	1.148829168342	1
1	1145	1.169457233889	0
1	1162	1.18484959593	1
1	1169	1.189980383277	2
1	1190	1.215599347959	3
1	1196	1.220765107359	2
1	1213	1.261741462029	3
1	1234	1.307883576099	2
1	1252	1.354025690169	1
2	74	0.220261574694	0
2	143	0.302354172246	1
2	182	0.343400471022	2
2	234	0.394708344492	3
2	253	0.411394663463	4
2	334	0.487062516738	3
2	478	0.602527752232	4
2	530	0.640986137148	3
2	603	0.702555585312	4
2	678	0.758994246129	5
2	720	0.793660841001	6
2	738	0.810302119599	5
2	760	0.82569448164	6
2	766	0.830825268987	7
2	775	0.835956056334	8
2	952	0.98479392977	9
2	966	0.995010464091	8
2	1013	1.03092597552	9
2	1094	1.107887785725	10
2	1113	1.128410935113	11
2	1134	1.154064871848	12
2	1140	1.164326446542	13
2	1153	1.175927018539	14
2	1191	1.215634320012	13
2	1258	1.367060107308	14
2	1315	1.558193196077	13
2	1360	1.749326284846	12
2	1401	1.940459373615	11
2	1440	2.131592462384	10
2	1473	2.322725551153	9
2	1499	2.513858639922	8
2	1521	2.704991728691	7
2	1539	2.89612481746	6
2	1555	3.087257906229	5
2	1566	3.278390994998	4
2	1575	3.469524083767	3
2	1585	3.660657172536	2
2	1594	3.851790261305	1
3	82	0.230523149388	0
3	107	0.26130787347	1
3	111	0.266438660817	2
3	115	0.269661670237	3
3	151	0.308800191086	2
3	187	0.347938711935	1
3	294	0.451147005309	0
3	318	0.471670154697	1
3	328	0.481931729391	2
3	340	0.490285526158	3
3	386	0.529424047007	2
3	436	0.568562567856	1
3	437	0.56915511429	0
3	485	0.608293635139	1
3	512	0.630724562454	0
3	564	0.669863083303	1
3	616	0.712817160006	0
3	666	0.748732671435	1
3	670	0.751955680855	2
3	708	0.784648182864	1
3	718	0.791094201704	2
3	764	0.830232722553	1
3	806	0.861609993069	0
3	855	0.900748513918	1
3	942	0.974487314703	0
3	995	1.013625835552	1
3	1074	1.092495423684	0
3	1117	1.131633944533	1
3	1120	1.138672509807	0
3	1154	1.177811030656	1
3	1201	1.225895894706	0
3	1214	1.265034415555	1
4	94	0.245915511429	0
4	134	0.292092597552	1
4	243	0.404599312251	2
4	416	0.553762752249	1
4	428	0.563283113073	2
4	521	0.635855349801	1
4	537	0.646116924495	2
4	626	0.721966913895	3
4	715	0.789778970211	2
4	726	0.800040544905	3
4	792	0.846217631028	4
4	823	0.87700235511	5
4	828	0.880650714717	6
4	980	1.005272038785	5
4	1003	1.020664400826	6
4	1024	1.039334515539	7
4	1080	1.097626211031	6
4	1137	1.159195659195	7
4	1158	1.179718808583	8
4	1176	1.198018316361	9
4	1254	1.356702117183	8
4	1304	1.515385918005	7
4	1338	1.674069718827	6
4	1379	1.832753519649	5
4	1414	1.991437320471	4
4	1442	2.150121121293	3
4	1471	2.308804922115	2
4	1490	2.467488722937	1
5	98	0.251046298776	0
5	121	0.276700235511	1
5	178	0.338269683675	2
5	186	0.346443403825	3
5	204	0.36392362041	2
5	239	0.399839131839	3
5	280	0.435754643268	4
5	287	0.441840508874	5
5	290	0.446016217962	4
5	312	0.46653936735	5
5	396	0.537237613923	6
5	410	0.548631964902	5
5	480	0.605070625719	6
5	495	0.615332200413	7
5	516	0.632634718972	8
5	633	0.728031824021	7
5	746	0.815432906946	6
5	757	0.82342892907	7
5	880	0.918826034119	6
5	888	0.92831022858	5
5	896	0.933441015927	6
5	919	0.953964165315	7
5	925	0.959094952662	8
5	996	1.014223139168	9
5	1096	1.109620244217	8
5	1101	1.113018573072	7
5	1118	1.13354172246	8
5	1149	1.174588021236	9
5	1177	1.200241957971	10
5	1181	1.205017349266	11
5	1230	1.300414454315	10
5	1270	1.395811559364	9
5	1296	1.491208664413	8
5	1322	1.586605769462	7
5	1341	1.682002874511	6
5	1366	1.77739997956	5
5	1387	1.872797084609	4
5	1408	1.968194189658	3
5	1427	2.063591294707	2
5	1445	2.158988399756	1
6	102	0.256177086123	0
6	142	0.30100735332	1
6	219	0.379315982451	0
6	267	0.424146249648	1
6	322	0.476800942044	0
6	377	0.521631209241	1
6	378	0.522978028167	0
6	390	0.533239602861	1
6	435	0.567808295364	2
6	492	0.612638562561	1
6	559	0.666640073883	0
6	579	0.682032435924	1
6	590	0.692294010618	2
6	614	0.71147034108	3
6	642	0.733340309394	2
6	675	0.756300608277	3
6	730	0.801130875474	2
6	791	0.845961142671	1
6	914	0.948833377968	0
6	936	0.969356527356	1
6	963	0.993663645165	2
6	1022	1.038493912362	1
6	1027	1.041187550214	0
6	1043	1.056579912255	1
6	1058	1.077103061643	2
6	1064	1.08223384899	3
6	1067	1.086017817411	4
6	1116	1.130848084608	3
6	1152	1.175678351805	2
6	1195	1.220508619002	1
7	117	0.271569448164	0
7	130	0.286961810205	1
7	165	0.322879585419	2
7	169	0.328008108981	1
7	199	0.358792833063	2
7	213	0.374185195104	3
7	214	0.374189722674	4
7	269	0.425499859929	3
7	323	0.476809997184	2
7	354	0.502454878779	1
7	383	0.528120134439	2
7	449	0.579430271694	1
7	455	0.584547476331	0
7	522	0.635857613586	1
7	752	0.820563694293	0
7	819	0.871873831548	1
7	842	0.892394717151	0
7	910	0.943704854406	1
7	1009	1.025795188173	0
7	1059	1.077105325428	1
7	1109	1.123280147766	0
7	1150	1.174590285021	1
8	138	0.297223384899	0
8	174	0.333138896328	1
8	225	0.384446769798	2
8	244	0.404969919186	3
8	249	0.410100706533	4
8	256	0.41523149388	5
8	273	0.430623855921	6
8	300	0.456277792656	7
8	346	0.496039826302	8
8	424	0.558893539596	7
8	442	0.574285901637	8
8	566	0.67177086123	9
8	594	0.694856267705	10
8	845	0.893672709108	9
8	857	0.902656291845	8
8	1073	1.092489150511	9
8	1203	1.231026682053	8
8	1228	1.291305591914	9
8	1295	1.490122033317	8
8	1346	1.68893847472	7
8	1393	1.887754916123	6
8	1431	2.086571357526	5
8	1466	2.285387798929	4
8	1494	2.484204240332	3
8	1517	2.683020681735	2
8	1536	2.881837123138	1
9	154	0.31261574694	0
9	159	0.317746534287	1
9	164	0.322877321634	2
9	188	0.348531258369	3
9	284	0.440885430615	4
9	304	0.456854786061	5
9	347	0.497324091432	4
9	365	0.512716453473	5
9	467	0.594809051025	6
9	472	0.599939838372	7
9	476	0.601093825182	8
9	500	0.62046298776	7
9	506	0.625593775107	8
9	543	0.651247711842	9
9	549	0.656378499189	10
9	555	0.661509286536	11
9	649	0.738471096741	12
9	660	0.745332864303	13
9	671	0.753863458782	12
9	734	0.805171332252	13
9	818	0.871871567763	14
9	835	0.887263929804	15
9	839	0.889571903424	16
9	867	0.907787079192	15
9	909	0.943702590621	16
9	946	0.97961810205	17
9	958	0.989879676744	18
9	1018	1.033810942545	19
9	1104	1.118149360419	18
9	1155	1.178049981666	19
9	1242	1.322289020787	18
9	1289	1.466528059908	17
9	1330	1.610767099029	16
9	1361	1.75500613815	15
9	1398	1.899245177271	14
9	1422	2.043484216392	13
9	1451	2.187723255513	12
9	1475	2.331962294634	11
9	1492	2.476201333755	10
9	1510	2.620440372876	9
9	1526	2.764679411997	8
9	1541	2.908918451118	7
9	1553	3.053157490239	6
9	1563	3.19739652936	5
9	1570	3.341635568481	4
9	1577	3.485874607602	3
9	1583	3.630113646723	2
9	1591	3.774352685844	1
10	193	0.353662045716	0
10	230	0.389577557145	1
10	268	0.425493068574	2
10	338	0.489656381181	3
10	399	0.538370390208	2
10	404	0.543501177555	3
10	448	0.579416688984	4
10	507	0.625650716646	5
10	620	0.717947947353	4
10	657	0.743601884088	5
10	681	0.761645052111	6
10	689	0.769255820823	5
10	696	0.77438660817	6
10	722	0.794909757558	7
10	830	0.882133142457	8
10	849	0.897639387576	9
10	873	0.912917866539	8
10	951	0.984748889397	9
10	972	1.000141251438	10
10	1016	1.033633723041	11
10	1032	1.046318337561	10
10	1046	1.061710699602	11
10	1069	1.087364636337	12
10	1146	1.169628058506	13
10	1173	1.195111170624	12
10	1233	1.305622393971	13
10	1283	1.441616729436	12
10	1321	1.577611064901	11
10	1354	1.713605400366	10
10	1382	1.849599735831	9
10	1412	1.985594071296	8
10	1437	2.121588406761	7
10	1461	2.257582742226	6
10	1482	2.393577077691	5
10	1502	2.529571413156	4
10	1514	2.665565748621	3
10	1530	2.801560084086	2
10	1545	2.937554419551	1
11	307	0.461408580003	0
11	359	0.507585666126	1
11	371	0.51784724082	2
11	411	0.548662040291	3
11	487	0.610201413066	2
11	523	0.635915500579	3
11	628	0.7230787347	2
11	629	0.723168960867	3
11	634	0.728209522047	2
11	703	0.779517395517	3
11	739	0.810422421155	4
11	783	0.841086843681	3
11	802	0.856479205722	4
11	812	0.866740780416	5
11	850	0.897675881443	6
11	884	0.923179441233	5
11	953	0.984929341731	6
11	1020	1.036056762867	5
11	1054	1.072182802019	6
11	1086	1.102756998378	5
11	1125	1.143803297154	6
11	1130	1.148934084501	7
11	1138	1.159436262307	8
11	1208	1.246689722595	7
11	1246	1.333943182883	6
11	1278	1.421196643171	5
11	1302	1.508450103459	4
11	1324	1.595703563747	3
11	1342	1.682957024035	2
11	1365	1.770210484323	1

